Program Version,EnergyPlus, Version 9.2.0-921312fa1d, YMD=2020.06.07 16:16
1,5,Environment Title[],Latitude[deg],Longitude[deg],Time Zone[],Elevation[m]
2,8,Day of Simulation[],Month[],Day of Month[],DST Indicator[1=yes 0=no],Hour[],StartMinute[],EndMinute[],DayType
3,5,Cumulative Day of Simulation[],Month[],Day of Month[],DST Indicator[1=yes 0=no],DayType  ! When Daily Report Variables Requested
4,2,Cumulative Days of Simulation[],Month[]  ! When Monthly Report Variables Requested
5,1,Cumulative Days of Simulation[] ! When Run Period Report Variables Requested
6,1,Calendar Year of Simulation[] ! When Annual Report Variables Requested
7183,1,FLOOR 2 LAB 1,Zone Air Relative Humidity [%] !Hourly
7602,1,FLOOR 2 OPERATING,Zone Air Relative Humidity [%] !Hourly
8173,1,FLOOR 2 TRIAGE,Zone Air Relative Humidity [%] !Hourly
8364,1,FLOOR 3 ICU,Zone Air Relative Humidity [%] !Hourly
8935,1,FLOOR 3 TRIAGE,Zone Air Relative Humidity [%] !Hourly
11537,1,FLOOR 1 CAFE VAV BOX COMPONENT,Zone Air Terminal Outdoor Air Volume Flow Rate [m3/s] !Hourly
11538,1,FLOOR 1 CLEAN VAV BOX COMPONENT,Zone Air Terminal Outdoor Air Volume Flow Rate [m3/s] !Hourly
11539,1,FLOOR 1 CONFERENCE VAV BOX COMPONENT,Zone Air Terminal Outdoor Air Volume Flow Rate [m3/s] !Hourly
11540,1,FLOOR 1 DINING VAV BOX COMPONENT,Zone Air Terminal Outdoor Air Volume Flow Rate [m3/s] !Hourly
11541,1,FLOOR 1 ELEVATOR VAV BOX COMPONENT,Zone Air Terminal Outdoor Air Volume Flow Rate [m3/s] !Hourly
11542,1,FLOOR 1 EXAM VAV BOX COMPONENT,Zone Air Terminal Outdoor Air Volume Flow Rate [m3/s] !Hourly
11543,1,FLOOR 1 FOOD STORAGE VAV BOX COMPONENT,Zone Air Terminal Outdoor Air Volume Flow Rate [m3/s] !Hourly
11544,1,FLOOR 1 GAS STORAGE VAV BOX COMPONENT,Zone Air Terminal Outdoor Air Volume Flow Rate [m3/s] !Hourly
11545,1,FLOOR 1 IMAGING VAV BOX COMPONENT,Zone Air Terminal Outdoor Air Volume Flow Rate [m3/s] !Hourly
11546,1,FLOOR 1 KITCHEN VAV BOX COMPONENT,Zone Air Terminal Outdoor Air Volume Flow Rate [m3/s] !Hourly
11547,1,FLOOR 1 LAB 1 VAV BOX COMPONENT,Zone Air Terminal Outdoor Air Volume Flow Rate [m3/s] !Hourly
11548,1,FLOOR 1 LAB 2 VAV BOX COMPONENT,Zone Air Terminal Outdoor Air Volume Flow Rate [m3/s] !Hourly
11549,1,FLOOR 1 LAUNDRY VAV BOX COMPONENT,Zone Air Terminal Outdoor Air Volume Flow Rate [m3/s] !Hourly
11550,1,FLOOR 1 LOBBY VAV BOX COMPONENT,Zone Air Terminal Outdoor Air Volume Flow Rate [m3/s] !Hourly
11551,1,FLOOR 1 LOUNGE VAV BOX COMPONENT,Zone Air Terminal Outdoor Air Volume Flow Rate [m3/s] !Hourly
11552,1,FLOOR 1 MECH 1 VAV BOX COMPONENT,Zone Air Terminal Outdoor Air Volume Flow Rate [m3/s] !Hourly
11553,1,FLOOR 1 MECH 2 VAV BOX COMPONENT,Zone Air Terminal Outdoor Air Volume Flow Rate [m3/s] !Hourly
11554,1,FLOOR 1 OFFICE 1 VAV BOX COMPONENT,Zone Air Terminal Outdoor Air Volume Flow Rate [m3/s] !Hourly
11555,1,FLOOR 1 OFFICE 2 VAV BOX COMPONENT,Zone Air Terminal Outdoor Air Volume Flow Rate [m3/s] !Hourly
11556,1,FLOOR 1 OFFICE 3 VAV BOX COMPONENT,Zone Air Terminal Outdoor Air Volume Flow Rate [m3/s] !Hourly
11557,1,FLOOR 1 OFFICE 3 PERIMETER 1 VAV BOX COMPONENT,Zone Air Terminal Outdoor Air Volume Flow Rate [m3/s] !Hourly
11558,1,FLOOR 1 OFFICE 3 PERIMETER 2 VAV BOX COMPONENT,Zone Air Terminal Outdoor Air Volume Flow Rate [m3/s] !Hourly
11559,1,FLOOR 1 OFFICE 3 PERIMETER 3 VAV BOX COMPONENT,Zone Air Terminal Outdoor Air Volume Flow Rate [m3/s] !Hourly
11560,1,FLOOR 1 PATIENT VAV BOX COMPONENT,Zone Air Terminal Outdoor Air Volume Flow Rate [m3/s] !Hourly
11561,1,FLOOR 1 PHARMACY VAV BOX COMPONENT,Zone Air Terminal Outdoor Air Volume Flow Rate [m3/s] !Hourly
11562,1,FLOOR 1 PHYSICAL THERAPY VAV BOX COMPONENT,Zone Air Terminal Outdoor Air Volume Flow Rate [m3/s] !Hourly
11563,1,FLOOR 1 RECEIVING VAV BOX COMPONENT,Zone Air Terminal Outdoor Air Volume Flow Rate [m3/s] !Hourly
11564,1,FLOOR 1 RECEPTION VAV BOX COMPONENT,Zone Air Terminal Outdoor Air Volume Flow Rate [m3/s] !Hourly
11565,1,FLOOR 1 SOIL VAV BOX COMPONENT,Zone Air Terminal Outdoor Air Volume Flow Rate [m3/s] !Hourly
11566,1,FLOOR 1 STORAGE VAV BOX COMPONENT,Zone Air Terminal Outdoor Air Volume Flow Rate [m3/s] !Hourly
11567,1,FLOOR 1 WAITING VAV BOX COMPONENT,Zone Air Terminal Outdoor Air Volume Flow Rate [m3/s] !Hourly
11568,1,FLOOR 2 CHAPEL VAV BOX COMPONENT,Zone Air Terminal Outdoor Air Volume Flow Rate [m3/s] !Hourly
11569,1,FLOOR 2 CLEAN 1 VAV BOX COMPONENT,Zone Air Terminal Outdoor Air Volume Flow Rate [m3/s] !Hourly
11570,1,FLOOR 2 CLEAN 2 VAV BOX COMPONENT,Zone Air Terminal Outdoor Air Volume Flow Rate [m3/s] !Hourly
11571,1,FLOOR 2 CORRIDOR VAV BOX COMPONENT,Zone Air Terminal Outdoor Air Volume Flow Rate [m3/s] !Hourly
11572,1,FLOOR 2 ELEVATOR VAV BOX COMPONENT,Zone Air Terminal Outdoor Air Volume Flow Rate [m3/s] !Hourly
11573,1,FLOOR 2 EXAM 1 VAV BOX COMPONENT,Zone Air Terminal Outdoor Air Volume Flow Rate [m3/s] !Hourly
11574,1,FLOOR 2 EXAM 2 VAV BOX COMPONENT,Zone Air Terminal Outdoor Air Volume Flow Rate [m3/s] !Hourly
11575,1,FLOOR 2 EXAM 3 VAV BOX COMPONENT,Zone Air Terminal Outdoor Air Volume Flow Rate [m3/s] !Hourly
11576,1,FLOOR 2 EXAM 4 VAV BOX COMPONENT,Zone Air Terminal Outdoor Air Volume Flow Rate [m3/s] !Hourly
11577,1,FLOOR 2 GIFT SHOP VAV BOX COMPONENT,Zone Air Terminal Outdoor Air Volume Flow Rate [m3/s] !Hourly
11578,1,FLOOR 2 IMAGING 1 VAV BOX COMPONENT,Zone Air Terminal Outdoor Air Volume Flow Rate [m3/s] !Hourly
11579,1,FLOOR 2 IMAGING 2 VAV BOX COMPONENT,Zone Air Terminal Outdoor Air Volume Flow Rate [m3/s] !Hourly
11580,1,FLOOR 2 IMAGING 3 VAV BOX COMPONENT,Zone Air Terminal Outdoor Air Volume Flow Rate [m3/s] !Hourly
11581,1,FLOOR 2 LAB 1 VAV BOX COMPONENT,Zone Air Terminal Outdoor Air Volume Flow Rate [m3/s] !Hourly
11582,1,FLOOR 2 LAB 2 VAV BOX COMPONENT,Zone Air Terminal Outdoor Air Volume Flow Rate [m3/s] !Hourly
11583,1,FLOOR 2 LOCKERS VAV BOX COMPONENT,Zone Air Terminal Outdoor Air Volume Flow Rate [m3/s] !Hourly
11584,1,FLOOR 2 LOUNGE 1 VAV BOX COMPONENT,Zone Air Terminal Outdoor Air Volume Flow Rate [m3/s] !Hourly
11585,1,FLOOR 2 LOUNGE 2 VAV BOX COMPONENT,Zone Air Terminal Outdoor Air Volume Flow Rate [m3/s] !Hourly
11586,1,FLOOR 2 NURSE STATION 1 VAV BOX COMPONENT,Zone Air Terminal Outdoor Air Volume Flow Rate [m3/s] !Hourly
11587,1,FLOOR 2 NURSE STATION 2 VAV BOX COMPONENT,Zone Air Terminal Outdoor Air Volume Flow Rate [m3/s] !Hourly
11588,1,FLOOR 2 OFFICE 1 VAV BOX COMPONENT,Zone Air Terminal Outdoor Air Volume Flow Rate [m3/s] !Hourly
11589,1,FLOOR 2 OFFICE 2 VAV BOX COMPONENT,Zone Air Terminal Outdoor Air Volume Flow Rate [m3/s] !Hourly
11590,1,FLOOR 2 OFFICE 3 VAV BOX COMPONENT,Zone Air Terminal Outdoor Air Volume Flow Rate [m3/s] !Hourly
11591,1,FLOOR 2 OFFICE 4 VAV BOX COMPONENT,Zone Air Terminal Outdoor Air Volume Flow Rate [m3/s] !Hourly
11592,1,FLOOR 2 OPERATING VAV BOX COMPONENT,Zone Air Terminal Outdoor Air Volume Flow Rate [m3/s] !Hourly
11593,1,FLOOR 2 PACU VAV BOX COMPONENT,Zone Air Terminal Outdoor Air Volume Flow Rate [m3/s] !Hourly
11594,1,FLOOR 2 PATIENT 1 VAV BOX COMPONENT,Zone Air Terminal Outdoor Air Volume Flow Rate [m3/s] !Hourly
11595,1,FLOOR 2 PATIENT 2 VAV BOX COMPONENT,Zone Air Terminal Outdoor Air Volume Flow Rate [m3/s] !Hourly
11596,1,FLOOR 2 PROCEDURE 1 VAV BOX COMPONENT,Zone Air Terminal Outdoor Air Volume Flow Rate [m3/s] !Hourly
11597,1,FLOOR 2 PROCEDURE 2 VAV BOX COMPONENT,Zone Air Terminal Outdoor Air Volume Flow Rate [m3/s] !Hourly
11598,1,FLOOR 2 RECEPTION VAV BOX COMPONENT,Zone Air Terminal Outdoor Air Volume Flow Rate [m3/s] !Hourly
11599,1,FLOOR 2 RESTROOM 1 VAV BOX COMPONENT,Zone Air Terminal Outdoor Air Volume Flow Rate [m3/s] !Hourly
11600,1,FLOOR 2 RESTROOM 2 VAV BOX COMPONENT,Zone Air Terminal Outdoor Air Volume Flow Rate [m3/s] !Hourly
11601,1,FLOOR 2 SOIL 1 VAV BOX COMPONENT,Zone Air Terminal Outdoor Air Volume Flow Rate [m3/s] !Hourly
11602,1,FLOOR 2 SOIL 2 VAV BOX COMPONENT,Zone Air Terminal Outdoor Air Volume Flow Rate [m3/s] !Hourly
11603,1,FLOOR 2 STERILIZING VAV BOX COMPONENT,Zone Air Terminal Outdoor Air Volume Flow Rate [m3/s] !Hourly
11604,1,FLOOR 2 STORAGE 1 VAV BOX COMPONENT,Zone Air Terminal Outdoor Air Volume Flow Rate [m3/s] !Hourly
11605,1,FLOOR 2 STORAGE 2 VAV BOX COMPONENT,Zone Air Terminal Outdoor Air Volume Flow Rate [m3/s] !Hourly
11606,1,FLOOR 2 TRAUMA VAV BOX COMPONENT,Zone Air Terminal Outdoor Air Volume Flow Rate [m3/s] !Hourly
11607,1,FLOOR 2 TRIAGE VAV BOX COMPONENT,Zone Air Terminal Outdoor Air Volume Flow Rate [m3/s] !Hourly
11608,1,FLOOR 2 WAITING VAV BOX COMPONENT,Zone Air Terminal Outdoor Air Volume Flow Rate [m3/s] !Hourly
11609,1,FLOOR 3 CLEAN VAV BOX COMPONENT,Zone Air Terminal Outdoor Air Volume Flow Rate [m3/s] !Hourly
11610,1,FLOOR 3 ELEVATOR VAV BOX COMPONENT,Zone Air Terminal Outdoor Air Volume Flow Rate [m3/s] !Hourly
11611,1,FLOOR 3 EXAM VAV BOX COMPONENT,Zone Air Terminal Outdoor Air Volume Flow Rate [m3/s] !Hourly
11612,1,FLOOR 3 ICU VAV BOX COMPONENT,Zone Air Terminal Outdoor Air Volume Flow Rate [m3/s] !Hourly
11613,1,FLOOR 3 NURSE STATION 1 VAV BOX COMPONENT,Zone Air Terminal Outdoor Air Volume Flow Rate [m3/s] !Hourly
11614,1,FLOOR 3 NURSE STATION 2 VAV BOX COMPONENT,Zone Air Terminal Outdoor Air Volume Flow Rate [m3/s] !Hourly
11615,1,FLOOR 3 NURSERY VAV BOX COMPONENT,Zone Air Terminal Outdoor Air Volume Flow Rate [m3/s] !Hourly
11616,1,FLOOR 3 OFFICE VAV BOX COMPONENT,Zone Air Terminal Outdoor Air Volume Flow Rate [m3/s] !Hourly
11617,1,FLOOR 3 OPERATING VAV BOX COMPONENT,Zone Air Terminal Outdoor Air Volume Flow Rate [m3/s] !Hourly
11618,1,FLOOR 3 PATIENT 1 VAV BOX COMPONENT,Zone Air Terminal Outdoor Air Volume Flow Rate [m3/s] !Hourly
11619,1,FLOOR 3 PATIENT 2 VAV BOX COMPONENT,Zone Air Terminal Outdoor Air Volume Flow Rate [m3/s] !Hourly
11620,1,FLOOR 3 PATIENT 3 VAV BOX COMPONENT,Zone Air Terminal Outdoor Air Volume Flow Rate [m3/s] !Hourly
11621,1,FLOOR 3 PATIENT 4 VAV BOX COMPONENT,Zone Air Terminal Outdoor Air Volume Flow Rate [m3/s] !Hourly
11622,1,FLOOR 3 PATIENT CORRIDOR 1 VAV BOX COMPONENT,Zone Air Terminal Outdoor Air Volume Flow Rate [m3/s] !Hourly
11623,1,FLOOR 3 PATIENT CORRIDOR 2 VAV BOX COMPONENT,Zone Air Terminal Outdoor Air Volume Flow Rate [m3/s] !Hourly
11624,1,FLOOR 3 PROCEDURE VAV BOX COMPONENT,Zone Air Terminal Outdoor Air Volume Flow Rate [m3/s] !Hourly
11625,1,FLOOR 3 SOIL VAV BOX COMPONENT,Zone Air Terminal Outdoor Air Volume Flow Rate [m3/s] !Hourly
11626,1,FLOOR 3 SUPPLY VAV BOX COMPONENT,Zone Air Terminal Outdoor Air Volume Flow Rate [m3/s] !Hourly
11627,1,FLOOR 3 TRIAGE VAV BOX COMPONENT,Zone Air Terminal Outdoor Air Volume Flow Rate [m3/s] !Hourly
11628,1,FLOOR 3 WAITING VAV BOX COMPONENT,Zone Air Terminal Outdoor Air Volume Flow Rate [m3/s] !Hourly
11629,1,FLOOR 4-6 CLEAN VAV BOX COMPONENT,Zone Air Terminal Outdoor Air Volume Flow Rate [m3/s] !Hourly
11630,1,FLOOR 4-6 ELEVATOR VAV BOX COMPONENT,Zone Air Terminal Outdoor Air Volume Flow Rate [m3/s] !Hourly
11631,1,FLOOR 4-6 NURSE STATION VAV BOX COMPONENT,Zone Air Terminal Outdoor Air Volume Flow Rate [m3/s] !Hourly
11632,1,FLOOR 4-6 OFFICE VAV BOX COMPONENT,Zone Air Terminal Outdoor Air Volume Flow Rate [m3/s] !Hourly
11633,1,FLOOR 4-6 PATIENT 1 VAV BOX COMPONENT,Zone Air Terminal Outdoor Air Volume Flow Rate [m3/s] !Hourly
11634,1,FLOOR 4-6 PATIENT 2 VAV BOX COMPONENT,Zone Air Terminal Outdoor Air Volume Flow Rate [m3/s] !Hourly
11635,1,FLOOR 4-6 PATIENT 3 VAV BOX COMPONENT,Zone Air Terminal Outdoor Air Volume Flow Rate [m3/s] !Hourly
11636,1,FLOOR 4-6 PATIENT 4 VAV BOX COMPONENT,Zone Air Terminal Outdoor Air Volume Flow Rate [m3/s] !Hourly
11637,1,FLOOR 4-6 PATIENT CORRIDOR 1 VAV BOX COMPONENT,Zone Air Terminal Outdoor Air Volume Flow Rate [m3/s] !Hourly
11638,1,FLOOR 4-6 PATIENT CORRIDOR 2 VAV BOX COMPONENT,Zone Air Terminal Outdoor Air Volume Flow Rate [m3/s] !Hourly
11639,1,FLOOR 4-6 SOIL VAV BOX COMPONENT,Zone Air Terminal Outdoor Air Volume Flow Rate [m3/s] !Hourly
11640,1,FLOOR 4-6 SUPPLY VAV BOX COMPONENT,Zone Air Terminal Outdoor Air Volume Flow Rate [m3/s] !Hourly
11641,1,FLOOR 7 CLEAN VAV BOX COMPONENT,Zone Air Terminal Outdoor Air Volume Flow Rate [m3/s] !Hourly
11642,1,FLOOR 7 ELEVATOR VAV BOX COMPONENT,Zone Air Terminal Outdoor Air Volume Flow Rate [m3/s] !Hourly
11643,1,FLOOR 7 NURSE STATION VAV BOX COMPONENT,Zone Air Terminal Outdoor Air Volume Flow Rate [m3/s] !Hourly
11644,1,FLOOR 7 OFFICE VAV BOX COMPONENT,Zone Air Terminal Outdoor Air Volume Flow Rate [m3/s] !Hourly
11645,1,FLOOR 7 PATIENT 1 VAV BOX COMPONENT,Zone Air Terminal Outdoor Air Volume Flow Rate [m3/s] !Hourly
11646,1,FLOOR 7 PATIENT 2 VAV BOX COMPONENT,Zone Air Terminal Outdoor Air Volume Flow Rate [m3/s] !Hourly
11647,1,FLOOR 7 PATIENT 3 VAV BOX COMPONENT,Zone Air Terminal Outdoor Air Volume Flow Rate [m3/s] !Hourly
11648,1,FLOOR 7 PATIENT 4 VAV BOX COMPONENT,Zone Air Terminal Outdoor Air Volume Flow Rate [m3/s] !Hourly
11649,1,FLOOR 7 PATIENT CORRIDOR 1 VAV BOX COMPONENT,Zone Air Terminal Outdoor Air Volume Flow Rate [m3/s] !Hourly
11650,1,FLOOR 7 PATIENT CORRIDOR 2 VAV BOX COMPONENT,Zone Air Terminal Outdoor Air Volume Flow Rate [m3/s] !Hourly
11651,1,FLOOR 7 SOIL VAV BOX COMPONENT,Zone Air Terminal Outdoor Air Volume Flow Rate [m3/s] !Hourly
11652,1,FLOOR 7 SUPPLY VAV BOX COMPONENT,Zone Air Terminal Outdoor Air Volume Flow Rate [m3/s] !Hourly
11653,1,MOB FLOOR 1 CORE VAV BOX COMPONENT,Zone Air Terminal Outdoor Air Volume Flow Rate [m3/s] !Hourly
11654,1,MOB FLOOR 1 PERIMETER 1 VAV BOX COMPONENT,Zone Air Terminal Outdoor Air Volume Flow Rate [m3/s] !Hourly
11655,1,MOB FLOOR 1 PERIMETER 2 VAV BOX COMPONENT,Zone Air Terminal Outdoor Air Volume Flow Rate [m3/s] !Hourly
11656,1,MOB FLOOR 1 PERIMETER 3 VAV BOX COMPONENT,Zone Air Terminal Outdoor Air Volume Flow Rate [m3/s] !Hourly
11657,1,MOB FLOOR 2-4 CORE VAV BOX COMPONENT,Zone Air Terminal Outdoor Air Volume Flow Rate [m3/s] !Hourly
11658,1,MOB FLOOR 2-4 PERIMETER 1 VAV BOX COMPONENT,Zone Air Terminal Outdoor Air Volume Flow Rate [m3/s] !Hourly
11659,1,MOB FLOOR 2-4 PERIMETER 2 VAV BOX COMPONENT,Zone Air Terminal Outdoor Air Volume Flow Rate [m3/s] !Hourly
11660,1,MOB FLOOR 2-4 PERIMETER 3 VAV BOX COMPONENT,Zone Air Terminal Outdoor Air Volume Flow Rate [m3/s] !Hourly
11661,1,MOB FLOOR 2-4 PERIMETER 4 VAV BOX COMPONENT,Zone Air Terminal Outdoor Air Volume Flow Rate [m3/s] !Hourly
11662,1,MOB FLOOR 5 CORE VAV BOX COMPONENT,Zone Air Terminal Outdoor Air Volume Flow Rate [m3/s] !Hourly
11663,1,MOB FLOOR 5 PERIMETER 1 VAV BOX COMPONENT,Zone Air Terminal Outdoor Air Volume Flow Rate [m3/s] !Hourly
11664,1,MOB FLOOR 5 PERIMETER 2 VAV BOX COMPONENT,Zone Air Terminal Outdoor Air Volume Flow Rate [m3/s] !Hourly
11665,1,MOB FLOOR 5 PERIMETER 3 VAV BOX COMPONENT,Zone Air Terminal Outdoor Air Volume Flow Rate [m3/s] !Hourly
11666,1,MOB FLOOR 5 PERIMETER 4 VAV BOX COMPONENT,Zone Air Terminal Outdoor Air Volume Flow Rate [m3/s] !Hourly
12056,1,FLOOR 1 CAFE VAV BOX OUTLET NODE NAME,System Node Standard Density Volume Flow Rate [m3/s] !Hourly
12057,1,FLOOR 1 CLEAN VAV BOX OUTLET NODE NAME,System Node Standard Density Volume Flow Rate [m3/s] !Hourly
12058,1,FLOOR 1 CONFERENCE VAV BOX OUTLET NODE NAME,System Node Standard Density Volume Flow Rate [m3/s] !Hourly
12059,1,FLOOR 1 DINING VAV BOX OUTLET NODE NAME,System Node Standard Density Volume Flow Rate [m3/s] !Hourly
12060,1,FLOOR 1 ELEVATOR VAV BOX OUTLET NODE NAME,System Node Standard Density Volume Flow Rate [m3/s] !Hourly
12061,1,FLOOR 1 EXAM VAV BOX OUTLET NODE NAME,System Node Standard Density Volume Flow Rate [m3/s] !Hourly
12062,1,FLOOR 1 FOOD STORAGE VAV BOX OUTLET NODE NAME,System Node Standard Density Volume Flow Rate [m3/s] !Hourly
12063,1,FLOOR 1 GAS STORAGE VAV BOX OUTLET NODE NAME,System Node Standard Density Volume Flow Rate [m3/s] !Hourly
12064,1,FLOOR 1 IMAGING VAV BOX OUTLET NODE NAME,System Node Standard Density Volume Flow Rate [m3/s] !Hourly
12065,1,FLOOR 1 KITCHEN VAV BOX OUTLET NODE NAME,System Node Standard Density Volume Flow Rate [m3/s] !Hourly
12066,1,FLOOR 1 LAB 1 VAV BOX OUTLET NODE NAME,System Node Standard Density Volume Flow Rate [m3/s] !Hourly
12067,1,FLOOR 1 LAB 2 VAV BOX OUTLET NODE NAME,System Node Standard Density Volume Flow Rate [m3/s] !Hourly
12068,1,FLOOR 1 LAUNDRY VAV BOX OUTLET NODE NAME,System Node Standard Density Volume Flow Rate [m3/s] !Hourly
12069,1,FLOOR 1 LOBBY VAV BOX OUTLET NODE NAME,System Node Standard Density Volume Flow Rate [m3/s] !Hourly
12070,1,FLOOR 1 LOUNGE VAV BOX OUTLET NODE NAME,System Node Standard Density Volume Flow Rate [m3/s] !Hourly
12071,1,FLOOR 1 MECH 1 VAV BOX OUTLET NODE NAME,System Node Standard Density Volume Flow Rate [m3/s] !Hourly
12072,1,FLOOR 1 MECH 2 VAV BOX OUTLET NODE NAME,System Node Standard Density Volume Flow Rate [m3/s] !Hourly
12073,1,FLOOR 1 OFFICE 1 VAV BOX OUTLET NODE NAME,System Node Standard Density Volume Flow Rate [m3/s] !Hourly
12074,1,FLOOR 1 OFFICE 2 VAV BOX OUTLET NODE NAME,System Node Standard Density Volume Flow Rate [m3/s] !Hourly
12075,1,FLOOR 1 OFFICE 3 VAV BOX OUTLET NODE NAME,System Node Standard Density Volume Flow Rate [m3/s] !Hourly
12076,1,FLOOR 1 OFFICE 3 PERIMETER 1 VAV BOX OUTLET NODE NAME,System Node Standard Density Volume Flow Rate [m3/s] !Hourly
12077,1,FLOOR 1 OFFICE 3 PERIMETER 2 VAV BOX OUTLET NODE NAME,System Node Standard Density Volume Flow Rate [m3/s] !Hourly
12078,1,FLOOR 1 OFFICE 3 PERIMETER 3 VAV BOX OUTLET NODE NAME,System Node Standard Density Volume Flow Rate [m3/s] !Hourly
12079,1,FLOOR 1 PATIENT VAV BOX OUTLET NODE NAME,System Node Standard Density Volume Flow Rate [m3/s] !Hourly
12080,1,FLOOR 1 PHARMACY VAV BOX OUTLET NODE NAME,System Node Standard Density Volume Flow Rate [m3/s] !Hourly
12081,1,FLOOR 1 PHYSICAL THERAPY VAV BOX OUTLET NODE NAME,System Node Standard Density Volume Flow Rate [m3/s] !Hourly
12082,1,FLOOR 1 RECEIVING VAV BOX OUTLET NODE NAME,System Node Standard Density Volume Flow Rate [m3/s] !Hourly
12083,1,FLOOR 1 RECEPTION VAV BOX OUTLET NODE NAME,System Node Standard Density Volume Flow Rate [m3/s] !Hourly
12084,1,FLOOR 1 SOIL VAV BOX OUTLET NODE NAME,System Node Standard Density Volume Flow Rate [m3/s] !Hourly
12085,1,FLOOR 1 STORAGE VAV BOX OUTLET NODE NAME,System Node Standard Density Volume Flow Rate [m3/s] !Hourly
12086,1,FLOOR 1 WAITING VAV BOX OUTLET NODE NAME,System Node Standard Density Volume Flow Rate [m3/s] !Hourly
12087,1,FLOOR 2 CHAPEL VAV BOX OUTLET NODE NAME,System Node Standard Density Volume Flow Rate [m3/s] !Hourly
12088,1,FLOOR 2 CLEAN 1 VAV BOX OUTLET NODE NAME,System Node Standard Density Volume Flow Rate [m3/s] !Hourly
12089,1,FLOOR 2 CLEAN 2 VAV BOX OUTLET NODE NAME,System Node Standard Density Volume Flow Rate [m3/s] !Hourly
12090,1,FLOOR 2 CORRIDOR VAV BOX OUTLET NODE NAME,System Node Standard Density Volume Flow Rate [m3/s] !Hourly
12091,1,FLOOR 2 ELEVATOR VAV BOX OUTLET NODE NAME,System Node Standard Density Volume Flow Rate [m3/s] !Hourly
12092,1,FLOOR 2 EXAM 1 VAV BOX OUTLET NODE NAME,System Node Standard Density Volume Flow Rate [m3/s] !Hourly
12093,1,FLOOR 2 EXAM 2 VAV BOX OUTLET NODE NAME,System Node Standard Density Volume Flow Rate [m3/s] !Hourly
12094,1,FLOOR 2 EXAM 3 VAV BOX OUTLET NODE NAME,System Node Standard Density Volume Flow Rate [m3/s] !Hourly
12095,1,FLOOR 2 EXAM 4 VAV BOX OUTLET NODE NAME,System Node Standard Density Volume Flow Rate [m3/s] !Hourly
12096,1,FLOOR 2 GIFT SHOP VAV BOX OUTLET NODE NAME,System Node Standard Density Volume Flow Rate [m3/s] !Hourly
12097,1,FLOOR 2 IMAGING 1 VAV BOX OUTLET NODE NAME,System Node Standard Density Volume Flow Rate [m3/s] !Hourly
12098,1,FLOOR 2 IMAGING 2 VAV BOX OUTLET NODE NAME,System Node Standard Density Volume Flow Rate [m3/s] !Hourly
12099,1,FLOOR 2 IMAGING 3 VAV BOX OUTLET NODE NAME,System Node Standard Density Volume Flow Rate [m3/s] !Hourly
12100,1,FLOOR 2 LAB 1 VAV BOX OUTLET NODE NAME,System Node Standard Density Volume Flow Rate [m3/s] !Hourly
12101,1,FLOOR 2 LAB 2 VAV BOX OUTLET NODE NAME,System Node Standard Density Volume Flow Rate [m3/s] !Hourly
12102,1,FLOOR 2 LOCKERS VAV BOX OUTLET NODE NAME,System Node Standard Density Volume Flow Rate [m3/s] !Hourly
12103,1,FLOOR 2 LOUNGE 1 VAV BOX OUTLET NODE NAME,System Node Standard Density Volume Flow Rate [m3/s] !Hourly
12104,1,FLOOR 2 LOUNGE 2 VAV BOX OUTLET NODE NAME,System Node Standard Density Volume Flow Rate [m3/s] !Hourly
12105,1,FLOOR 2 NURSE STATION 1 VAV BOX OUTLET NODE NAME,System Node Standard Density Volume Flow Rate [m3/s] !Hourly
12106,1,FLOOR 2 NURSE STATION 2 VAV BOX OUTLET NODE NAME,System Node Standard Density Volume Flow Rate [m3/s] !Hourly
12107,1,FLOOR 2 OFFICE 1 VAV BOX OUTLET NODE NAME,System Node Standard Density Volume Flow Rate [m3/s] !Hourly
12108,1,FLOOR 2 OFFICE 2 VAV BOX OUTLET NODE NAME,System Node Standard Density Volume Flow Rate [m3/s] !Hourly
12109,1,FLOOR 2 OFFICE 3 VAV BOX OUTLET NODE NAME,System Node Standard Density Volume Flow Rate [m3/s] !Hourly
12110,1,FLOOR 2 OFFICE 4 VAV BOX OUTLET NODE NAME,System Node Standard Density Volume Flow Rate [m3/s] !Hourly
12111,1,FLOOR 2 OPERATING VAV BOX OUTLET NODE NAME,System Node Standard Density Volume Flow Rate [m3/s] !Hourly
12112,1,FLOOR 2 PACU VAV BOX OUTLET NODE NAME,System Node Standard Density Volume Flow Rate [m3/s] !Hourly
12113,1,FLOOR 2 PATIENT 1 VAV BOX OUTLET NODE NAME,System Node Standard Density Volume Flow Rate [m3/s] !Hourly
12114,1,FLOOR 2 PATIENT 2 VAV BOX OUTLET NODE NAME,System Node Standard Density Volume Flow Rate [m3/s] !Hourly
12115,1,FLOOR 2 PROCEDURE 1 VAV BOX OUTLET NODE NAME,System Node Standard Density Volume Flow Rate [m3/s] !Hourly
12116,1,FLOOR 2 PROCEDURE 2 VAV BOX OUTLET NODE NAME,System Node Standard Density Volume Flow Rate [m3/s] !Hourly
12117,1,FLOOR 2 RECEPTION VAV BOX OUTLET NODE NAME,System Node Standard Density Volume Flow Rate [m3/s] !Hourly
12118,1,FLOOR 2 RESTROOM 1 VAV BOX OUTLET NODE NAME,System Node Standard Density Volume Flow Rate [m3/s] !Hourly
12119,1,FLOOR 2 RESTROOM 2 VAV BOX OUTLET NODE NAME,System Node Standard Density Volume Flow Rate [m3/s] !Hourly
12120,1,FLOOR 2 SOIL 1 VAV BOX OUTLET NODE NAME,System Node Standard Density Volume Flow Rate [m3/s] !Hourly
12121,1,FLOOR 2 SOIL 2 VAV BOX OUTLET NODE NAME,System Node Standard Density Volume Flow Rate [m3/s] !Hourly
12122,1,FLOOR 2 STERILIZING VAV BOX OUTLET NODE NAME,System Node Standard Density Volume Flow Rate [m3/s] !Hourly
12123,1,FLOOR 2 STORAGE 1 VAV BOX OUTLET NODE NAME,System Node Standard Density Volume Flow Rate [m3/s] !Hourly
12124,1,FLOOR 2 STORAGE 2 VAV BOX OUTLET NODE NAME,System Node Standard Density Volume Flow Rate [m3/s] !Hourly
12125,1,FLOOR 2 TRAUMA VAV BOX OUTLET NODE NAME,System Node Standard Density Volume Flow Rate [m3/s] !Hourly
12126,1,FLOOR 2 TRIAGE VAV BOX OUTLET NODE NAME,System Node Standard Density Volume Flow Rate [m3/s] !Hourly
12127,1,FLOOR 2 WAITING VAV BOX OUTLET NODE NAME,System Node Standard Density Volume Flow Rate [m3/s] !Hourly
12128,1,FLOOR 3 CLEAN VAV BOX OUTLET NODE NAME,System Node Standard Density Volume Flow Rate [m3/s] !Hourly
12129,1,FLOOR 3 ELEVATOR VAV BOX OUTLET NODE NAME,System Node Standard Density Volume Flow Rate [m3/s] !Hourly
12130,1,FLOOR 3 EXAM VAV BOX OUTLET NODE NAME,System Node Standard Density Volume Flow Rate [m3/s] !Hourly
12131,1,FLOOR 3 ICU VAV BOX OUTLET NODE NAME,System Node Standard Density Volume Flow Rate [m3/s] !Hourly
12132,1,FLOOR 3 NURSE STATION 1 VAV BOX OUTLET NODE NAME,System Node Standard Density Volume Flow Rate [m3/s] !Hourly
12133,1,FLOOR 3 NURSE STATION 2 VAV BOX OUTLET NODE NAME,System Node Standard Density Volume Flow Rate [m3/s] !Hourly
12134,1,FLOOR 3 NURSERY VAV BOX OUTLET NODE NAME,System Node Standard Density Volume Flow Rate [m3/s] !Hourly
12135,1,FLOOR 3 OFFICE VAV BOX OUTLET NODE NAME,System Node Standard Density Volume Flow Rate [m3/s] !Hourly
12136,1,FLOOR 3 OPERATING VAV BOX OUTLET NODE NAME,System Node Standard Density Volume Flow Rate [m3/s] !Hourly
12137,1,FLOOR 3 PATIENT 1 VAV BOX OUTLET NODE NAME,System Node Standard Density Volume Flow Rate [m3/s] !Hourly
12138,1,FLOOR 3 PATIENT 2 VAV BOX OUTLET NODE NAME,System Node Standard Density Volume Flow Rate [m3/s] !Hourly
12139,1,FLOOR 3 PATIENT 3 VAV BOX OUTLET NODE NAME,System Node Standard Density Volume Flow Rate [m3/s] !Hourly
12140,1,FLOOR 3 PATIENT 4 VAV BOX OUTLET NODE NAME,System Node Standard Density Volume Flow Rate [m3/s] !Hourly
12141,1,FLOOR 3 PATIENT CORRIDOR 1 VAV BOX OUTLET NODE NAME,System Node Standard Density Volume Flow Rate [m3/s] !Hourly
12142,1,FLOOR 3 PATIENT CORRIDOR 2 VAV BOX OUTLET NODE NAME,System Node Standard Density Volume Flow Rate [m3/s] !Hourly
12143,1,FLOOR 3 PROCEDURE VAV BOX OUTLET NODE NAME,System Node Standard Density Volume Flow Rate [m3/s] !Hourly
12144,1,FLOOR 3 SOIL VAV BOX OUTLET NODE NAME,System Node Standard Density Volume Flow Rate [m3/s] !Hourly
12145,1,FLOOR 3 SUPPLY VAV BOX OUTLET NODE NAME,System Node Standard Density Volume Flow Rate [m3/s] !Hourly
12146,1,FLOOR 3 TRIAGE VAV BOX OUTLET NODE NAME,System Node Standard Density Volume Flow Rate [m3/s] !Hourly
12147,1,FLOOR 3 WAITING VAV BOX OUTLET NODE NAME,System Node Standard Density Volume Flow Rate [m3/s] !Hourly
12148,1,FLOOR 4-6 CLEAN VAV BOX OUTLET NODE NAME,System Node Standard Density Volume Flow Rate [m3/s] !Hourly
12149,1,FLOOR 4-6 ELEVATOR VAV BOX OUTLET NODE NAME,System Node Standard Density Volume Flow Rate [m3/s] !Hourly
12150,1,FLOOR 4-6 NURSE STATION VAV BOX OUTLET NODE NAME,System Node Standard Density Volume Flow Rate [m3/s] !Hourly
12151,1,FLOOR 4-6 OFFICE VAV BOX OUTLET NODE NAME,System Node Standard Density Volume Flow Rate [m3/s] !Hourly
12152,1,FLOOR 4-6 PATIENT 1 VAV BOX OUTLET NODE NAME,System Node Standard Density Volume Flow Rate [m3/s] !Hourly
12153,1,FLOOR 4-6 PATIENT 2 VAV BOX OUTLET NODE NAME,System Node Standard Density Volume Flow Rate [m3/s] !Hourly
12154,1,FLOOR 4-6 PATIENT 3 VAV BOX OUTLET NODE NAME,System Node Standard Density Volume Flow Rate [m3/s] !Hourly
12155,1,FLOOR 4-6 PATIENT 4 VAV BOX OUTLET NODE NAME,System Node Standard Density Volume Flow Rate [m3/s] !Hourly
12156,1,FLOOR 4-6 PATIENT CORRIDOR 1 VAV BOX OUTLET NODE NAME,System Node Standard Density Volume Flow Rate [m3/s] !Hourly
12157,1,FLOOR 4-6 PATIENT CORRIDOR 2 VAV BOX OUTLET NODE NAME,System Node Standard Density Volume Flow Rate [m3/s] !Hourly
12158,1,FLOOR 4-6 SOIL VAV BOX OUTLET NODE NAME,System Node Standard Density Volume Flow Rate [m3/s] !Hourly
12159,1,FLOOR 4-6 SUPPLY VAV BOX OUTLET NODE NAME,System Node Standard Density Volume Flow Rate [m3/s] !Hourly
12160,1,FLOOR 7 CLEAN VAV BOX OUTLET NODE NAME,System Node Standard Density Volume Flow Rate [m3/s] !Hourly
12161,1,FLOOR 7 ELEVATOR VAV BOX OUTLET NODE NAME,System Node Standard Density Volume Flow Rate [m3/s] !Hourly
12162,1,FLOOR 7 NURSE STATION VAV BOX OUTLET NODE NAME,System Node Standard Density Volume Flow Rate [m3/s] !Hourly
12163,1,FLOOR 7 OFFICE VAV BOX OUTLET NODE NAME,System Node Standard Density Volume Flow Rate [m3/s] !Hourly
12164,1,FLOOR 7 PATIENT 1 VAV BOX OUTLET NODE NAME,System Node Standard Density Volume Flow Rate [m3/s] !Hourly
12165,1,FLOOR 7 PATIENT 2 VAV BOX OUTLET NODE NAME,System Node Standard Density Volume Flow Rate [m3/s] !Hourly
12166,1,FLOOR 7 PATIENT 3 VAV BOX OUTLET NODE NAME,System Node Standard Density Volume Flow Rate [m3/s] !Hourly
12167,1,FLOOR 7 PATIENT 4 VAV BOX OUTLET NODE NAME,System Node Standard Density Volume Flow Rate [m3/s] !Hourly
12168,1,FLOOR 7 PATIENT CORRIDOR 1 VAV BOX OUTLET NODE NAME,System Node Standard Density Volume Flow Rate [m3/s] !Hourly
12169,1,FLOOR 7 PATIENT CORRIDOR 2 VAV BOX OUTLET NODE NAME,System Node Standard Density Volume Flow Rate [m3/s] !Hourly
12170,1,FLOOR 7 SOIL VAV BOX OUTLET NODE NAME,System Node Standard Density Volume Flow Rate [m3/s] !Hourly
12171,1,FLOOR 7 SUPPLY VAV BOX OUTLET NODE NAME,System Node Standard Density Volume Flow Rate [m3/s] !Hourly
12172,1,MOB FLOOR 1 CORE VAV BOX OUTLET NODE NAME,System Node Standard Density Volume Flow Rate [m3/s] !Hourly
12173,1,MOB FLOOR 1 PERIMETER 1 VAV BOX OUTLET NODE NAME,System Node Standard Density Volume Flow Rate [m3/s] !Hourly
12174,1,MOB FLOOR 1 PERIMETER 2 VAV BOX OUTLET NODE NAME,System Node Standard Density Volume Flow Rate [m3/s] !Hourly
12175,1,MOB FLOOR 1 PERIMETER 3 VAV BOX OUTLET NODE NAME,System Node Standard Density Volume Flow Rate [m3/s] !Hourly
12176,1,MOB FLOOR 2-4 CORE VAV BOX OUTLET NODE NAME,System Node Standard Density Volume Flow Rate [m3/s] !Hourly
12177,1,MOB FLOOR 2-4 PERIMETER 1 VAV BOX OUTLET NODE NAME,System Node Standard Density Volume Flow Rate [m3/s] !Hourly
12178,1,MOB FLOOR 2-4 PERIMETER 2 VAV BOX OUTLET NODE NAME,System Node Standard Density Volume Flow Rate [m3/s] !Hourly
12179,1,MOB FLOOR 2-4 PERIMETER 3 VAV BOX OUTLET NODE NAME,System Node Standard Density Volume Flow Rate [m3/s] !Hourly
12180,1,MOB FLOOR 2-4 PERIMETER 4 VAV BOX OUTLET NODE NAME,System Node Standard Density Volume Flow Rate [m3/s] !Hourly
12181,1,MOB FLOOR 5 CORE VAV BOX OUTLET NODE NAME,System Node Standard Density Volume Flow Rate [m3/s] !Hourly
12182,1,MOB FLOOR 5 PERIMETER 1 VAV BOX OUTLET NODE NAME,System Node Standard Density Volume Flow Rate [m3/s] !Hourly
12183,1,MOB FLOOR 5 PERIMETER 2 VAV BOX OUTLET NODE NAME,System Node Standard Density Volume Flow Rate [m3/s] !Hourly
12184,1,MOB FLOOR 5 PERIMETER 3 VAV BOX OUTLET NODE NAME,System Node Standard Density Volume Flow Rate [m3/s] !Hourly
12185,1,MOB FLOOR 5 PERIMETER 4 VAV BOX OUTLET NODE NAME,System Node Standard Density Volume Flow Rate [m3/s] !Hourly
End of Data Dictionary
1,CHICAGO ANN HTG 99.6% CONDNS DB,  40.97,  28.82,   2.00,  37.00
2,1, 1,21, 0, 1, 0.00,60.00,WinterDesignDay
7183,29.998688891145009
7602,29.993908459706409
8173,29.991604890935219
8364,29.992462058598546
8935,29.99474708748231
11537,1.8562821705863096
11538,0.049837589999999997
11539,1.2916509750056645
11540,1.7230792457093543
11541,0.2568161390489949
11542,0.41116020000000005
11543,2.676235476511392
11544,0.13639172006954884
11545,0.3871596682433425
11546,3.869512316494418
11547,0.31148535000000007
11548,0.8032676851333932
11549,1.0519448299898693